{
  "page_id": 1,
  "metadata": {
    "file_name": "doc_0336.png",
    "image_width": 848,
    "image_height": 1000
  },
  "lines": [
    {
      "text": "(29 CFR 1915, 1916, 1917)",
      "bbox": [
        107,
        0,
        287,
        24
      ],
      "confidence": 0.9452236890792847
    },
    {
      "text": "MSDS # 00567",
      "bbox": [
        538,
        0,
        674,
        18
      ],
      "confidence": 0.995373547077179
    },
    {
      "text": "'SNAME",
      "bbox": [
        0,
        32,
        59,
        51
      ],
      "confidence": 0.973796546459198
    },
    {
      "text": "SECTION I",
      "bbox": [
        330,
        25,
        408,
        47
      ],
      "confidence": 0.9611960649490356
    },
    {
      "text": "1 Chemsearch; Div. of NCH Corporation",
      "bbox": [
        0,
        46,
        368,
        89
      ],
      "confidence": 0.9913654923439026
    },
    {
      "text": "EMERGENCYTELEPHONENUMBER",
      "bbox": [
        602,
        39,
        831,
        56
      ],
      "confidence": 0.9809678196907043
    },
    {
      "text": "214-438-4144",
      "bbox": [
        605,
        59,
        723,
        74
      ],
      "confidence": 0.999805212020874
    },
    {
      "text": "Ext. 013",
      "bbox": [
        739,
        54,
        825,
        76
      ],
      "confidence": 0.9969031810760498
    },
    {
      "text": "nemsearch Blvd., Irving,",
      "bbox": [
        0,
        86,
        236,
        119
      ],
      "confidence": 0.9816204905509949
    },
    {
      "text": "ODE)",
      "bbox": [
        231,
        84,
        261,
        95
      ],
      "confidence": 0.7953841686248779
    },
    {
      "text": "75062",
      "bbox": [
        301,
        94,
        359,
        118
      ],
      "confidence": 0.9999727010726929
    },
    {
      "text": "SYNONYMS",
      "bbox": [
        31,
        106,
        103,
        127
      ],
      "confidence": 0.9983465671539307
    },
    {
      "text": "Texas",
      "bbox": [
        232,
        100,
        289,
        117
      ],
      "confidence": 0.9998680353164673
    },
    {
      "text": "TRADE NAME& SYNONYMS",
      "bbox": [
        374,
        111,
        543,
        127
      ],
      "confidence": 0.962507426738739
    },
    {
      "text": "EZE-WAY",
      "bbox": [
        430,
        127,
        503,
        150
      ],
      "confidence": 0.9985390901565552
    },
    {
      "text": "MILY",
      "bbox": [
        0,
        143,
        33,
        158
      ],
      "confidence": 0.9480487108230591
    },
    {
      "text": "FORMULA",
      "bbox": [
        372,
        150,
        436,
        161
      ],
      "confidence": 0.9982620477676392
    },
    {
      "text": "SECTION II - HAZARDOUS INGREDIENTS",
      "bbox": [
        232,
        185,
        516,
        209
      ],
      "confidence": 0.9711709022521973
    },
    {
      "text": "TLV",
      "bbox": [
        781,
        199,
        818,
        218
      ],
      "confidence": 0.9989984035491943
    },
    {
      "text": "PRESERVATIVES & SOLVENTS",
      "bbox": [
        2,
        206,
        222,
        237
      ],
      "confidence": 0.9714450240135193
    },
    {
      "text": "%",
      "bbox": [
        269,
        217,
        284,
        232
      ],
      "confidence": 0.970829963684082
    },
    {
      "text": "TLV",
      "bbox": [
        313,
        205,
        350,
        223
      ],
      "confidence": 0.9983342289924622
    },
    {
      "text": "ALLOYS AND METALLIC COATINGS",
      "bbox": [
        420,
        211,
        668,
        230
      ],
      "confidence": 0.9820682406425476
    },
    {
      "text": "%",
      "bbox": [
        731,
        213,
        745,
        228
      ],
      "confidence": 0.9930421113967896
    },
    {
      "text": "(UNITS)",
      "bbox": [
        770,
        212,
        831,
        231
      ],
      "confidence": 0.9100610017776489
    },
    {
      "text": "(UNITS)",
      "bbox": [
        305,
        218,
        363,
        236
      ],
      "confidence": 0.9949541687965393
    },
    {
      "text": "BASE METAL",
      "bbox": [
        373,
        247,
        469,
        266
      ],
      "confidence": 0.9970042109489441
    },
    {
      "text": "ALLOYS",
      "bbox": [
        373,
        283,
        435,
        300
      ],
      "confidence": 0.9989679455757141
    },
    {
      "text": "METALLIC COATINGS",
      "bbox": [
        373,
        317,
        525,
        331
      ],
      "confidence": 0.9998185634613037
    },
    {
      "text": "FILLER METAL PLUS",
      "bbox": [
        373,
        343,
        525,
        356
      ],
      "confidence": 0.9952526092529297
    },
    {
      "text": "COATING OR CORE FLUX",
      "bbox": [
        373,
        354,
        551,
        368
      ],
      "confidence": 0.9637428522109985
    },
    {
      "text": "OTHERS",
      "bbox": [
        371,
        383,
        432,
        400
      ],
      "confidence": 0.9991099834442139
    },
    {
      "text": "TLV",
      "bbox": [
        785,
        438,
        822,
        456
      ],
      "confidence": 0.9961754679679871
    },
    {
      "text": "HAZARDOUS MIXTURES OF OTHER LIQUIDS, SOLIDS OR GASES",
      "bbox": [
        97,
        453,
        532,
        472
      ],
      "confidence": 0.9806722402572632
    },
    {
      "text": "%",
      "bbox": [
        737,
        451,
        754,
        469
      ],
      "confidence": 0.9479364156723022
    },
    {
      "text": "(UNITS)",
      "bbox": [
        775,
        452,
        835,
        470
      ],
      "confidence": 0.9971129298210144
    },
    {
      "text": "richloroethane",
      "bbox": [
        0,
        494,
        146,
        517
      ],
      "confidence": 0.9617406725883484
    },
    {
      "text": "8q-90",
      "bbox": [
        702,
        489,
        761,
        510
      ],
      "confidence": 0.9153053164482117
    },
    {
      "text": "350",
      "bbox": [
        762,
        490,
        799,
        509
      ],
      "confidence": 0.998217761516571
    },
    {
      "text": "ppm",
      "bbox": [
        800,
        491,
        840,
        509
      ],
      "confidence": 0.9984483122825623
    },
    {
      "text": "Spirits",
      "bbox": [
        0,
        529,
        87,
        554
      ],
      "confidence": 0.9999709725379944
    },
    {
      "text": "1-5",
      "bbox": [
        723,
        525,
        759,
        544
      ],
      "confidence": 0.9951262474060059
    },
    {
      "text": "100",
      "bbox": [
        762,
        524,
        799,
        544
      ],
      "confidence": 0.9981050491333008
    },
    {
      "text": "ppm",
      "bbox": [
        801,
        526,
        840,
        545
      ],
      "confidence": 0.9944422245025635
    },
    {
      "text": "1-5",
      "bbox": [
        720,
        555,
        761,
        581
      ],
      "confidence": 0.9718980193138123
    },
    {
      "text": "400",
      "bbox": [
        761,
        557,
        798,
        577
      ],
      "confidence": 0.869025707244873
    },
    {
      "text": "ppm",
      "bbox": [
        799,
        557,
        840,
        579
      ],
      "confidence": 0.998388946056366
    },
    {
      "text": "etate",
      "bbox": [
        0,
        563,
        64,
        587
      ],
      "confidence": 0.9996673464775085
    },
    {
      "text": "SECTION III - PHY SICAL DATA",
      "bbox": [
        263,
        620,
        483,
        634
      ],
      "confidence": 0.9669612050056458
    },
    {
      "text": "(F)",
      "bbox": [
        0,
        645,
        47,
        668
      ],
      "confidence": 0.791236400604248
    },
    {
      "text": "I.B.P. 175",
      "bbox": [
        194,
        650,
        288,
        667
      ],
      "confidence": 0.9895771741867065
    },
    {
      "text": "SPECIFIC GRAVITY (H,O=1)",
      "bbox": [
        375,
        641,
        571,
        661
      ],
      "confidence": 0.9957696795463562
    },
    {
      "text": "1.320",
      "bbox": [
        631,
        645,
        688,
        663
      ],
      "confidence": 0.982354462146759
    },
    {
      "text": "RE (mm Hg.) .",
      "bbox": [
        0,
        679,
        117,
        703
      ],
      "confidence": 0.9668111205101013
    },
    {
      "text": "73",
      "bbox": [
        193,
        682,
        219,
        704
      ],
      "confidence": 0.9999277591705322
    },
    {
      "text": "PERCENT, VOLATILE",
      "bbox": [
        376,
        669,
        531,
        688
      ],
      "confidence": 0.987569272518158
    },
    {
      "text": "BYVOLUME (%)",
      "bbox": [
        377,
        682,
        489,
        699
      ],
      "confidence": 0.9075843691825867
    },
    {
      "text": "88",
      "bbox": [
        631,
        678,
        658,
        700
      ],
      "confidence": 0.9999353885650635
    },
    {
      "text": "EVAPORATION RATE",
      "bbox": [
        378,
        705,
        527,
        721
      ],
      "confidence": 0.9991528987884521
    },
    {
      "text": "5",
      "bbox": [
        632,
        712,
        649,
        731
      ],
      "confidence": 0.9982799291610718
    },
    {
      "text": "Y (AIR=1)",
      "bbox": [
        0,
        713,
        86,
        738
      ],
      "confidence": 0.8650372624397278
    },
    {
      "text": "3",
      "bbox": [
        195,
        717,
        211,
        737
      ],
      "confidence": 0.9998621940612793
    },
    {
      "text": "Bu Ac",
      "bbox": [
        396,
        717,
        457,
        734
      ],
      "confidence": 0.9802502393722534
    },
    {
      "text": "=1)",
      "bbox": [
        498,
        717,
        529,
        733
      ],
      "confidence": 0.8429908752441406
    },
    {
      "text": "WATER",
      "bbox": [
        0,
        753,
        67,
        772
      ],
      "confidence": 0.9997529983520508
    },
    {
      "text": "Negligible",
      "bbox": [
        193,
        749,
        294,
        772
      ],
      "confidence": 0.9928051829338074
    },
    {
      "text": "AND ODOR",
      "bbox": [
        0,
        785,
        85,
        811
      ],
      "confidence": 0.92277991771698
    },
    {
      "text": "Clear brown, non-viscous liquid. perchloroethylene odor",
      "bbox": [
        195,
        775,
        728,
        805
      ],
      "confidence": 0.9948338866233826
    },
    {
      "text": "SECTION IV - FIRE AND EXPLOSION HAZARD DATA",
      "bbox": [
        196,
        796,
        558,
        825
      ],
      "confidence": 0.9886918067932129
    },
    {
      "text": "F LAMMADLE LIMITS",
      "bbox": [
        378,
        815,
        504,
        833
      ],
      "confidence": 0.9464263916015625
    },
    {
      "text": "737",
      "bbox": [
        595,
        815,
        628,
        830
      ],
      "confidence": 0.7728162407875061
    },
    {
      "text": "190°F. C.O.C. Concentrate",
      "bbox": [
        18,
        831,
        285,
        870
      ],
      "confidence": 0.9596753120422363
    },
    {
      "text": "USEDI",
      "bbox": [
        54,
        830,
        100,
        848
      ],
      "confidence": 0.9814518094062805
    },
    {
      "text": "EDIA",
      "bbox": [
        0,
        871,
        45,
        887
      ],
      "confidence": 0.744763970375061
    },
    {
      "text": "Chemical, Foam",
      "bbox": [
        3,
        875,
        170,
        908
      ],
      "confidence": 0.9959737062454224
    },
    {
      "text": "2057410286",
      "bbox": [
        619,
        881,
        794,
        908
      ],
      "confidence": 0.9997057914733887
    },
    {
      "text": "TING",
      "bbox": [
        15,
        907,
        59,
        921
      ],
      "confidence": 0.9978722333908081
    },
    {
      "text": "PEOCEDURES",
      "bbox": [
        56,
        898,
        161,
        919
      ],
      "confidence": 0.9607237577438354
    },
    {
      "text": "EXFLOSIONHAZARCS",
      "bbox": [
        1,
        967,
        167,
        999
      ],
      "confidence": 0.9414121508598328
    }
  ],
  "full_text": "(29 CFR 1915, 1916, 1917)\nMSDS # 00567\n'SNAME\nSECTION I\n1 Chemsearch; Div. of NCH Corporation\nEMERGENCYTELEPHONENUMBER\n214-438-4144\nExt. 013\nnemsearch Blvd., Irving,\nODE)\n75062\nSYNONYMS\nTexas\nTRADE NAME& SYNONYMS\nEZE-WAY\nMILY\nFORMULA\nSECTION II - HAZARDOUS INGREDIENTS\nTLV\nPRESERVATIVES & SOLVENTS\n%\nTLV\nALLOYS AND METALLIC COATINGS\n%\n(UNITS)\n(UNITS)\nBASE METAL\nALLOYS\nMETALLIC COATINGS\nFILLER METAL PLUS\nCOATING OR CORE FLUX\nOTHERS\nTLV\nHAZARDOUS MIXTURES OF OTHER LIQUIDS, SOLIDS OR GASES\n%\n(UNITS)\nrichloroethane\n8q-90\n350\nppm\nSpirits\n1-5\n100\nppm\n1-5\n400\nppm\netate\nSECTION III - PHY SICAL DATA\n(F)\nI.B.P. 175\nSPECIFIC GRAVITY (H,O=1)\n1.320\nRE (mm Hg.) .\n73\nPERCENT, VOLATILE\nBYVOLUME (%)\n88\nEVAPORATION RATE\n5\nY (AIR=1)\n3\nBu Ac\n=1)\nWATER\nNegligible\nAND ODOR\nClear brown, non-viscous liquid. perchloroethylene odor\nSECTION IV - FIRE AND EXPLOSION HAZARD DATA\nF LAMMADLE LIMITS\n737\n190°F. C.O.C. Concentrate\nUSEDI\nEDIA\nChemical, Foam\n2057410286\nTING\nPEOCEDURES\nEXFLOSIONHAZARCS"
}