{
  "page_id": 1,
  "metadata": {
    "file_name": "doc_0514.png",
    "image_width": 780,
    "image_height": 1000
  },
  "lines": [
    {
      "text": "U.S. DEPARTMENT OF LABOR",
      "bbox": [
        296,
        0,
        524,
        21
      ],
      "confidence": 0.9917335510253906
    },
    {
      "text": "Occupational Safety and Health Administration",
      "bbox": [
        249,
        15,
        570,
        42
      ],
      "confidence": 0.9653856158256531
    },
    {
      "text": "OMU NO, 44.1:367",
      "bbox": [
        640,
        16,
        746,
        31
      ],
      "confidence": 0.8124134540557861
    },
    {
      "text": "IFORMATON FORWARDED BY,",
      "bbox": [
        0,
        36,
        171,
        62
      ],
      "confidence": 0.9357141256332397
    },
    {
      "text": "XIE INDUETRIAL SUPPLY",
      "bbox": [
        0,
        51,
        136,
        69
      ],
      "confidence": 0.9408518671989441
    },
    {
      "text": "MATERIAL SAFETY DATA SHEET",
      "bbox": [
        200,
        39,
        616,
        88
      ],
      "confidence": 0.9802731871604919
    },
    {
      "text": "NOV 13 Rec'",
      "bbox": [
        617,
        42,
        723,
        68
      ],
      "confidence": 0.7983265519142151
    },
    {
      "text": ".L6Y,NC 704-482-5641",
      "bbox": [
        0,
        62,
        148,
        81
      ],
      "confidence": 0.9035431742668152
    },
    {
      "text": "0 C02490DATE 18-0-8",
      "bbox": [
        0,
        77,
        170,
        106
      ],
      "confidence": 0.7361582517623901
    },
    {
      "text": "Required under USOL Safety and Health Regulations for Ship Repairing.",
      "bbox": [
        194,
        97,
        620,
        118
      ],
      "confidence": 0.9917891025543213
    },
    {
      "text": "Shipbuilding, and Shipbreaking (29 CFR 1915, 1916, 1917)",
      "bbox": [
        233,
        113,
        581,
        135
      ],
      "confidence": 0.9733873009681702
    },
    {
      "text": "SECTION 1",
      "bbox": [
        365,
        149,
        447,
        166
      ],
      "confidence": 0.961115300655365
    },
    {
      "text": "MANUFACTURER'SNAME",
      "bbox": [
        56,
        165,
        206,
        184
      ],
      "confidence": 0.9616711139678955
    },
    {
      "text": "SUPPLIER",
      "bbox": [
        381,
        172,
        451,
        186
      ],
      "confidence": 0.9997288584709167
    },
    {
      "text": "EMERGENCY TELEPHONE NO.",
      "bbox": [
        528,
        168,
        694,
        186
      ],
      "confidence": 0.9827732443809509
    },
    {
      "text": "ENERPAC, DIV. OF APPLIED POWER",
      "bbox": [
        62,
        185,
        319,
        206
      ],
      "confidence": 0.9784761667251587
    },
    {
      "text": "(414) 781-6600",
      "bbox": [
        533,
        186,
        650,
        207
      ],
      "confidence": 0.9869926571846008
    },
    {
      "text": "ADoREss (Number, Sireer, Ciry. Stete. end ZIP Code)",
      "bbox": [
        56,
        200,
        333,
        220
      ],
      "confidence": 0.8556730151176453
    },
    {
      "text": "ENERPAC",
      "bbox": [
        383,
        191,
        446,
        205
      ],
      "confidence": 0.9993497133255005
    },
    {
      "text": "13000 W.SILVER.SPRING DR.PBUTLER, WI S3007",
      "bbox": [
        59,
        209,
        437,
        231
      ],
      "confidence": 0.8563513159751892
    },
    {
      "text": "CHEMICALNAME ANO SYNONYMS",
      "bbox": [
        55,
        226,
        253,
        242
      ],
      "confidence": 0.9458136558532715
    },
    {
      "text": "TRADE NAME ANO SYNONYMS",
      "bbox": [
        464,
        227,
        639,
        242
      ],
      "confidence": 0.9685295820236206
    },
    {
      "text": "ENERPAC HF-1O0 Hydraulic Fluid /",
      "bbox": [
        462,
        237,
        733,
        255
      ],
      "confidence": 0.859906792640686
    },
    {
      "text": "CHEMICALFAMILY",
      "bbox": [
        56,
        250,
        166,
        263
      ],
      "confidence": 0.999039351940155
    },
    {
      "text": "Petroleum Lubricating Oil",
      "bbox": [
        59,
        259,
        274,
        278
      ],
      "confidence": 0.9970338940620422
    },
    {
      "text": "FORMULA",
      "bbox": [
        410,
        252,
        469,
        263
      ],
      "confidence": 0.9976701736450195
    },
    {
      "text": "Below",
      "bbox": [
        413,
        263,
        461,
        278
      ],
      "confidence": 0.9833133816719055
    },
    {
      "text": "SECTION II - HAZARDOUS INGREDIENTS",
      "bbox": [
        247,
        293,
        556,
        312
      ],
      "confidence": 0.9842432737350464
    },
    {
      "text": "PAINTS, PRESERVATIVES, & SOLVENTS",
      "bbox": [
        69,
        321,
        296,
        336
      ],
      "confidence": 0.9945297241210938
    },
    {
      "text": "x",
      "bbox": [
        322,
        322,
        337,
        337
      ],
      "confidence": 0.9702797532081604
    },
    {
      "text": "TLV",
      "bbox": [
        358,
        318,
        387,
        333
      ],
      "confidence": 0.9125933647155762
    },
    {
      "text": "TLV",
      "bbox": [
        707,
        317,
        736,
        332
      ],
      "confidence": 0.9977078437805176
    },
    {
      "text": "(Unit)",
      "bbox": [
        350,
        327,
        391,
        345
      ],
      "confidence": 0.8971266150474548
    },
    {
      "text": "ALLOYS ANO METALLIC COATINGS",
      "bbox": [
        437,
        323,
        636,
        338
      ],
      "confidence": 0.9804603457450867
    },
    {
      "text": "(Unit)",
      "bbox": [
        701,
        325,
        744,
        343
      ],
      "confidence": 0.7778022289276123
    },
    {
      "text": "PIGMENTS",
      "bbox": [
        52,
        346,
        116,
        360
      ],
      "confidence": 0.961604654788971
    },
    {
      "text": "BASE METAL",
      "bbox": [
        407,
        347,
        483,
        361
      ],
      "confidence": 0.8118196725845337
    },
    {
      "text": "CATALYST",
      "bbox": [
        51,
        372,
        118,
        386
      ],
      "confidence": 0.9915629625320435
    },
    {
      "text": "-",
      "bbox": [
        328,
        377,
        337,
        386
      ],
      "confidence": 0.9988898634910583
    },
    {
      "text": "ALLOYS",
      "bbox": [
        405,
        371,
        460,
        388
      ],
      "confidence": 0.9975840449333191
    },
    {
      "text": "VEHICLE",
      "bbox": [
        50,
        395,
        107,
        412
      ],
      "confidence": 0.9801479578018188
    },
    {
      "text": "METALLIC COATINGS",
      "bbox": [
        406,
        397,
        530,
        410
      ],
      "confidence": 0.9925057888031006
    },
    {
      "text": "SOLVENTS",
      "bbox": [
        50,
        421,
        116,
        435
      ],
      "confidence": 0.9874638319015503
    },
    {
      "text": "FILLER METAL",
      "bbox": [
        405,
        414,
        493,
        429
      ],
      "confidence": 0.9985318779945374
    },
    {
      "text": "PLUS COATING OR CORE FLUX",
      "bbox": [
        405,
        423,
        580,
        438
      ],
      "confidence": 0.971924901008606
    },
    {
      "text": "ADOITIVES",
      "bbox": [
        48,
        445,
        118,
        459
      ],
      "confidence": 0.9115346074104309
    },
    {
      "text": "OTHERS",
      "bbox": [
        405,
        443,
        455,
        458
      ],
      "confidence": 0.896088182926178
    },
    {
      "text": "OTHERS",
      "bbox": [
        46,
        468,
        102,
        485
      ],
      "confidence": 0.9929366707801819
    },
    {
      "text": "FORMULA:",
      "bbox": [
        52,
        499,
        123,
        513
      ],
      "confidence": 0.9908087849617004
    },
    {
      "text": "XXXXXUOUSXHXXUXEXSKXNXXEXXXEHIOXXAAIXXAKXAXEK",
      "bbox": [
        175,
        494,
        542,
        507
      ],
      "confidence": 0.6729627847671509
    },
    {
      "text": "x",
      "bbox": [
        674,
        491,
        689,
        507
      ],
      "confidence": 0.9001869559288025
    },
    {
      "text": "Paraffinic Lube Stocks",
      "bbox": [
        48,
        521,
        243,
        539
      ],
      "confidence": 0.9978933930397034
    },
    {
      "text": "95-1001",
      "bbox": [
        530,
        521,
        609,
        538
      ],
      "confidence": 0.8330246806144714
    },
    {
      "text": "Anti-wear Hvdrualic oil",
      "bbox": [
        47,
        545,
        262,
        564
      ],
      "confidence": 0.9834099411964417
    },
    {
      "text": "Zinc Dithiophosphate",
      "bbox": [
        268,
        545,
        443,
        564
      ],
      "confidence": 0.947862982749939
    },
    {
      "text": "oncainind",
      "bbox": [
        354,
        533,
        432,
        546
      ],
      "confidence": 0.8801378607749939
    },
    {
      "text": "31",
      "bbox": [
        588,
        546,
        608,
        562
      ],
      "confidence": 0.900586724281311
    },
    {
      "text": "'Methacrvlate Polvmer",
      "bbox": [
        45,
        573,
        223,
        587
      ],
      "confidence": 0.9639186859130859
    },
    {
      "text": "1",
      "bbox": [
        591,
        575,
        606,
        585
      ],
      "confidence": 0.8779768347740173
    },
    {
      "text": "Blue Dve",
      "bbox": [
        47,
        596,
        122,
        613
      ],
      "confidence": 0.9598864912986755
    },
    {
      "text": "Trace",
      "bbox": [
        545,
        597,
        591,
        612
      ],
      "confidence": 0.9872769117355347
    },
    {
      "text": "SECTION III - PHYSICAL'DATA",
      "bbox": [
        278,
        627,
        511,
        645
      ],
      "confidence": 0.9562480449676514
    },
    {
      "text": "BOILING POINT r.",
      "bbox": [
        44,
        653,
        164,
        667
      ],
      "confidence": 0.9105033278465271
    },
    {
      "text": "545",
      "bbox": [
        347,
        659,
        383,
        677
      ],
      "confidence": 0.9868518710136414
    },
    {
      "text": "SPECIFIC GRAVITY (H,O-1).",
      "bbox": [
        399,
        653,
        563,
        670
      ],
      "confidence": 0.963287889957428
    },
    {
      "text": "0.91",
      "bbox": [
        681,
        660,
        722,
        678
      ],
      "confidence": 0.8807634711265564
    },
    {
      "text": "VaPOR PRessure (mm H4.)",
      "bbox": [
        44,
        678,
        201,
        693
      ],
      "confidence": 0.7918527126312256
    },
    {
      "text": "0.01",
      "bbox": [
        333,
        677,
        374,
        696
      ],
      "confidence": 0.9998772144317627
    },
    {
      "text": "PERCENT, VOLATILE",
      "bbox": [
        399,
        674,
        521,
        689
      ],
      "confidence": 0.9935365319252014
    },
    {
      "text": "None",
      "bbox": [
        680,
        679,
        723,
        698
      ],
      "confidence": 0.9991305470466614
    },
    {
      "text": "BY VOLUME (%)",
      "bbox": [
        399,
        684,
        492,
        698
      ],
      "confidence": 0.8414856791496277
    },
    {
      "text": "VAPOR DENSITY (AIR-1)",
      "bbox": [
        43,
        704,
        187,
        718
      ],
      "confidence": 0.9622517824172974
    },
    {
      "text": "11",
      "bbox": [
        323,
        708,
        347,
        727
      ],
      "confidence": 0.9943398833274841
    },
    {
      "text": "EVAPORATION RATE",
      "bbox": [
        398,
        698,
        522,
        713
      ],
      "confidence": 0.9829958081245422
    },
    {
      "text": "-1)",
      "bbox": [
        497,
        711,
        518,
        723
      ],
      "confidence": 0.9030753970146179
    },
    {
      "text": "None",
      "bbox": [
        680,
        707,
        722,
        726
      ],
      "confidence": 0.9995296597480774
    },
    {
      "text": "SOLUBILITY in WATer",
      "bbox": [
        41,
        728,
        179,
        742
      ],
      "confidence": 0.7750815153121948
    },
    {
      "text": "Nebligible",
      "bbox": [
        290,
        733,
        378,
        750
      ],
      "confidence": 0.9579141736030579
    },
    {
      "text": "APPEARANCE ANO ODOR",
      "bbox": [
        40,
        753,
        190,
        767
      ],
      "confidence": 0.9839441180229187
    },
    {
      "text": "Clear Blue Liquid, very slight hydrocarbon odor",
      "bbox": [
        205,
        749,
        605,
        769
      ],
      "confidence": 0.9808946847915649
    },
    {
      "text": "SECTION IV  FIRE AND EXPLOSION HAZARD DATA",
      "bbox": [
        194,
        785,
        591,
        805
      ],
      "confidence": 0.9656262993812561
    },
    {
      "text": "FLASH POINT (MetNOd USed)",
      "bbox": [
        36,
        808,
        198,
        824
      ],
      "confidence": 0.8791937232017517
    },
    {
      "text": "FLAMMABLE LIMITS",
      "bbox": [
        411,
        809,
        532,
        825
      ],
      "confidence": 0.9782603979110718
    },
    {
      "text": "Lel",
      "bbox": [
        618,
        811,
        641,
        827
      ],
      "confidence": 0.7411239743232727
    },
    {
      "text": "COC3200F",
      "bbox": [
        38,
        822,
        122,
        835
      ],
      "confidence": 0.9102952480316162
    },
    {
      "text": "5",
      "bbox": [
        692,
        826,
        711,
        838
      ],
      "confidence": 0.7474698424339294
    },
    {
      "text": "EXTINGUISHING MEOIA",
      "bbox": [
        36,
        836,
        178,
        846
      ],
      "confidence": 0.9774686098098755
    },
    {
      "text": "Foam.dry chemical.·co, water.halon",
      "bbox": [
        36,
        846,
        348,
        860
      ],
      "confidence": 0.8777109384536743
    },
    {
      "text": "SPECIAL FIRE FIGHTING PROCEOURES",
      "bbox": [
        32,
        860,
        266,
        873
      ],
      "confidence": 0.9977942705154419
    },
    {
      "text": "\"se sir supplied brearhing cquipment for enclosed areas. cool exposed",
      "bbox": [
        30,
        867,
        646,
        890
      ],
      "confidence": 0.9381881952285767
    },
    {
      "text": "'containers with water spray.",
      "bbox": [
        27,
        896,
        285,
        910
      ],
      "confidence": 0.9609227776527405
    },
    {
      "text": "UNUSUAL FIRE ANO EXPLOSION HAZAROS",
      "bbox": [
        28,
        906,
        291,
        923
      ],
      "confidence": 0.9694384336471558
    },
    {
      "text": "Avoid breathing vapors.",
      "bbox": [
        294,
        894,
        489,
        910
      ],
      "confidence": 0.9502004384994507
    },
    {
      "text": ".*",
      "bbox": [
        311,
        941,
        320,
        950
      ],
      "confidence": 0.6793497800827026
    },
    {
      "text": "PAGE (1)",
      "bbox": [
        14,
        965,
        84,
        987
      ],
      "confidence": 0.9905732870101929
    },
    {
      "text": "(Continued on reverce sidel",
      "bbox": [
        290,
        962,
        453,
        982
      ],
      "confidence": 0.9500255584716797
    },
    {
      "text": "Form OSHA-20",
      "bbox": [
        653,
        970,
        754,
        989
      ],
      "confidence": 0.9981653094291687
    }
  ],
  "full_text": "U.S. DEPARTMENT OF LABOR\nOccupational Safety and Health Administration\nOMU NO, 44.1:367\nIFORMATON FORWARDED BY,\nXIE INDUETRIAL SUPPLY\nMATERIAL SAFETY DATA SHEET\nNOV 13 Rec'\n.L6Y,NC 704-482-5641\n0 C02490DATE 18-0-8\nRequired under USOL Safety and Health Regulations for Ship Repairing.\nShipbuilding, and Shipbreaking (29 CFR 1915, 1916, 1917)\nSECTION 1\nMANUFACTURER'SNAME\nSUPPLIER\nEMERGENCY TELEPHONE NO.\nENERPAC, DIV. OF APPLIED POWER\n(414) 781-6600\nADoREss (Number, Sireer, Ciry. Stete. end ZIP Code)\nENERPAC\n13000 W.SILVER.SPRING DR.PBUTLER, WI S3007\nCHEMICALNAME ANO SYNONYMS\nTRADE NAME ANO SYNONYMS\nENERPAC HF-1O0 Hydraulic Fluid /\nCHEMICALFAMILY\nPetroleum Lubricating Oil\nFORMULA\nBelow\nSECTION II - HAZARDOUS INGREDIENTS\nPAINTS, PRESERVATIVES, & SOLVENTS\nx\nTLV\nTLV\n(Unit)\nALLOYS ANO METALLIC COATINGS\n(Unit)\nPIGMENTS\nBASE METAL\nCATALYST\n-\nALLOYS\nVEHICLE\nMETALLIC COATINGS\nSOLVENTS\nFILLER METAL\nPLUS COATING OR CORE FLUX\nADOITIVES\nOTHERS\nOTHERS\nFORMULA:\nXXXXXUOUSXHXXUXEXSKXNXXEXXXEHIOXXAAIXXAKXAXEK\nx\nParaffinic Lube Stocks\n95-1001\nAnti-wear Hvdrualic oil\nZinc Dithiophosphate\noncainind\n31\n'Methacrvlate Polvmer\n1\nBlue Dve\nTrace\nSECTION III - PHYSICAL'DATA\nBOILING POINT r.\n545\nSPECIFIC GRAVITY (H,O-1).\n0.91\nVaPOR PRessure (mm H4.)\n0.01\nPERCENT, VOLATILE\nNone\nBY VOLUME (%)\nVAPOR DENSITY (AIR-1)\n11\nEVAPORATION RATE\n-1)\nNone\nSOLUBILITY in WATer\nNebligible\nAPPEARANCE ANO ODOR\nClear Blue Liquid, very slight hydrocarbon odor\nSECTION IV  FIRE AND EXPLOSION HAZARD DATA\nFLASH POINT (MetNOd USed)\nFLAMMABLE LIMITS\nLel\nCOC3200F\n5\nEXTINGUISHING MEOIA\nFoam.dry chemical.·co, water.halon\nSPECIAL FIRE FIGHTING PROCEOURES\n\"se sir supplied brearhing cquipment for enclosed areas. cool exposed\n'containers with water spray.\nUNUSUAL FIRE ANO EXPLOSION HAZAROS\nAvoid breathing vapors.\n.*\nPAGE (1)\n(Continued on reverce sidel\nForm OSHA-20"
}