{
  "page_id": 1,
  "metadata": {
    "file_name": "doc_0917.png",
    "image_width": 787,
    "image_height": 1000
  },
  "lines": [
    {
      "text": "MATERIAL SAFETY DATA SHEET",
      "bbox": [
        284,
        6,
        531,
        26
      ],
      "confidence": 0.9923495054244995
    },
    {
      "text": "000004018",
      "bbox": [
        599,
        34,
        705,
        54
      ],
      "confidence": 0.9999523162841797
    },
    {
      "text": "'Essentially Similar' to Form OSHA 20",
      "bbox": [
        276,
        39,
        543,
        56
      ],
      "confidence": 0.9867725968360901
    },
    {
      "text": "SECTION I",
      "bbox": [
        372,
        85,
        450,
        103
      ],
      "confidence": 0.9798876643180847
    },
    {
      "text": "GENERAL ELECTRIC COMPANY, MATERIALS AND PROCESS ENGINEERING LABORATORY",
      "bbox": [
        62,
        110,
        742,
        136
      ],
      "confidence": 0.9984651803970337
    },
    {
      "text": "Building 55 - Room 119, Schenectady, N.Y. 12345",
      "bbox": [
        62,
        129,
        421,
        151
      ],
      "confidence": 0.9787416458129883
    },
    {
      "text": "Health Hazard Information: (518) 385-4564",
      "bbox": [
        62,
        144,
        377,
        165
      ],
      "confidence": 0.9730532765388489
    },
    {
      "text": "Technieal Information: (518)385-4561 or Off Hours: (518) 385-2211",
      "bbox": [
        61,
        158,
        552,
        180
      ],
      "confidence": 0.9635199308395386
    },
    {
      "text": "EFFECTIVE DATE: July 10, 1985",
      "bbox": [
        61,
        189,
        314,
        212
      ],
      "confidence": 0.988121509552002
    },
    {
      "text": "PRODUCT NAME: A50A244, PT. 1",
      "bbox": [
        61,
        220,
        328,
        241
      ],
      "confidence": 0.9856234192848206
    },
    {
      "text": "FORMULA: (C15H16O2 · C3H5C10)x, CgH10O2",
      "bbox": [
        63,
        253,
        416,
        273
      ],
      "confidence": 0.9446684718132019
    },
    {
      "text": "SECTION II - HAZARDOUS INGREDIENTS OF MIXTURES",
      "bbox": [
        204,
        298,
        625,
        318
      ],
      "confidence": 0.9932541251182556
    },
    {
      "text": "PRINCIPAL HAZARDOUS COMPONENT(s)",
      "bbox": [
        65,
        334,
        378,
        348
      ],
      "confidence": 0.9804674386978149
    },
    {
      "text": "% (Wt.)",
      "bbox": [
        408,
        329,
        468,
        350
      ],
      "confidence": 0.924656867980957
    },
    {
      "text": "TLV (units)",
      "bbox": [
        493,
        332,
        575,
        350
      ],
      "confidence": 0.9439634680747986
    },
    {
      "text": "Liquid Epoxy Resin CAS 25068-38-6",
      "bbox": [
        62,
        362,
        327,
        383
      ],
      "confidence": 0.9892120361328125
    },
    {
      "text": "50-65",
      "bbox": [
        409,
        362,
        456,
        381
      ],
      "confidence": 0.9998052716255188
    },
    {
      "text": "NA",
      "bbox": [
        493,
        362,
        524,
        382
      ],
      "confidence": 0.999750554561615
    },
    {
      "text": "Phenyl Clyeidyl Ether CAS 122-60-1 PGE",
      "bbox": [
        62,
        393,
        367,
        414
      ],
      "confidence": 0.9713409543037415
    },
    {
      "text": "5-20",
      "bbox": [
        410,
        394,
        451,
        412
      ],
      "confidence": 0.9998539686203003
    },
    {
      "text": "10 ppm",
      "bbox": [
        495,
        393,
        553,
        414
      ],
      "confidence": 0.9902088046073914
    },
    {
      "text": "Polygicol Diepoxide",
      "bbox": [
        63,
        426,
        209,
        446
      ],
      "confidence": 0.9627119302749634
    },
    {
      "text": "25-35",
      "bbox": [
        412,
        424,
        458,
        444
      ],
      "confidence": 0.9998742341995239
    },
    {
      "text": "NA",
      "bbox": [
        496,
        425,
        526,
        445
      ],
      "confidence": 0.9995900988578796
    },
    {
      "text": "<5 ppm",
      "bbox": [
        412,
        454,
        475,
        479
      ],
      "confidence": 0.9969975352287292
    },
    {
      "text": "2 ppm",
      "bbox": [
        494,
        455,
        547,
        480
      ],
      "confidence": 0.9842478632926941
    },
    {
      "text": "Epichlorhydrin - ECH",
      "bbox": [
        63,
        459,
        221,
        478
      ],
      "confidence": 0.9844168424606323
    },
    {
      "text": "√.3",
      "bbox": [
        412,
        487,
        444,
        507
      ],
      "confidence": 0.8223809599876404
    },
    {
      "text": "Red Dye (Optional Component)",
      "bbox": [
        64,
        490,
        292,
        509
      ],
      "confidence": 0.9876126646995544
    },
    {
      "text": "SECTION III - PHYSICAL DATA",
      "bbox": [
        286,
        537,
        522,
        554
      ],
      "confidence": 0.9883362650871277
    },
    {
      "text": "INITIAL BOILING PT: 473",
      "bbox": [
        64,
        567,
        269,
        590
      ],
      "confidence": 0.9954819083213806
    },
    {
      "text": "SPECIFIC GRAVITY: 1.15",
      "bbox": [
        396,
        566,
        601,
        588
      ],
      "confidence": 0.9945642948150635
    },
    {
      "text": "VAPOR PRESSURE: 11.4 mM @ 248°F PGE VOLATILE BY WEIGHT:",
      "bbox": [
        64,
        600,
        580,
        619
      ],
      "confidence": 0.9705235362052917
    },
    {
      "text": "Nil",
      "bbox": [
        590,
        601,
        618,
        617
      ],
      "confidence": 0.9993381500244141
    },
    {
      "text": "VAPOR DENSITY: >5.1",
      "bbox": [
        64,
        631,
        250,
        650
      ],
      "confidence": 0.9970183968544006
    },
    {
      "text": "EVAPORATION RATE:",
      "bbox": [
        399,
        633,
        573,
        650
      ],
      "confidence": 0.9992947578430176
    },
    {
      "text": "Nil",
      "bbox": [
        582,
        633,
        610,
        649
      ],
      "confidence": 0.9996743202209473
    },
    {
      "text": "SOLUBILITY IN WATER: Nil",
      "bbox": [
        63,
        661,
        291,
        684
      ],
      "confidence": 0.9754279255867004
    },
    {
      "text": "APPEARANCE AND ODOR: Clear slightly amber liquid without dye",
      "bbox": [
        63,
        695,
        576,
        717
      ],
      "confidence": 0.9889078736305237
    },
    {
      "text": "SECTION IV - FIRE AND EXPLOSION HAZARD DATA",
      "bbox": [
        205,
        743,
        608,
        763
      ],
      "confidence": 0.977626383304596
    },
    {
      "text": "FLASH POINT (P-M, cc): >199°F Seta",
      "bbox": [
        64,
        773,
        358,
        796
      ],
      "confidence": 0.9896863102912903
    },
    {
      "text": "FLAMMABLE LIMITS",
      "bbox": [
        398,
        774,
        561,
        794
      ],
      "confidence": 0.9998282194137573
    },
    {
      "text": "NA",
      "bbox": [
        570,
        778,
        598,
        794
      ],
      "confidence": 0.9999080896377563
    },
    {
      "text": "LEL: NA",
      "bbox": [
        395,
        803,
        478,
        827
      ],
      "confidence": 0.9736350774765015
    },
    {
      "text": "UEL: NA",
      "bbox": [
        532,
        806,
        614,
        831
      ],
      "confidence": 0.9884454011917114
    },
    {
      "text": "EXTINGUISHING MEDIA: Water fog, CO2, dry chemicals.",
      "bbox": [
        61,
        839,
        498,
        860
      ],
      "confidence": 0.9894781112670898
    },
    {
      "text": "SPECIAL FIRE FIGHTING PROCEDURES:",
      "bbox": [
        60,
        888,
        377,
        906
      ],
      "confidence": 0.9987351298332214
    },
    {
      "text": "Wear protective equipment including",
      "bbox": [
        387,
        887,
        658,
        911
      ],
      "confidence": 0.9823789596557617
    },
    {
      "text": "self-contained breathing apparatus for large fires. Cool surroundings.",
      "bbox": [
        59,
        903,
        572,
        925
      ],
      "confidence": 0.9820170998573303
    },
    {
      "text": "UNUSUAL FIRE AND EXPLOSION PROCEDURES:",
      "bbox": [
        60,
        950,
        436,
        970
      ],
      "confidence": 0.9681382179260254
    },
    {
      "text": "None.",
      "bbox": [
        454,
        949,
        502,
        970
      ],
      "confidence": 0.9997881054878235
    }
  ],
  "full_text": "MATERIAL SAFETY DATA SHEET\n000004018\n'Essentially Similar' to Form OSHA 20\nSECTION I\nGENERAL ELECTRIC COMPANY, MATERIALS AND PROCESS ENGINEERING LABORATORY\nBuilding 55 - Room 119, Schenectady, N.Y. 12345\nHealth Hazard Information: (518) 385-4564\nTechnieal Information: (518)385-4561 or Off Hours: (518) 385-2211\nEFFECTIVE DATE: July 10, 1985\nPRODUCT NAME: A50A244, PT. 1\nFORMULA: (C15H16O2 · C3H5C10)x, CgH10O2\nSECTION II - HAZARDOUS INGREDIENTS OF MIXTURES\nPRINCIPAL HAZARDOUS COMPONENT(s)\n% (Wt.)\nTLV (units)\nLiquid Epoxy Resin CAS 25068-38-6\n50-65\nNA\nPhenyl Clyeidyl Ether CAS 122-60-1 PGE\n5-20\n10 ppm\nPolygicol Diepoxide\n25-35\nNA\n<5 ppm\n2 ppm\nEpichlorhydrin - ECH\n√.3\nRed Dye (Optional Component)\nSECTION III - PHYSICAL DATA\nINITIAL BOILING PT: 473\nSPECIFIC GRAVITY: 1.15\nVAPOR PRESSURE: 11.4 mM @ 248°F PGE VOLATILE BY WEIGHT:\nNil\nVAPOR DENSITY: >5.1\nEVAPORATION RATE:\nNil\nSOLUBILITY IN WATER: Nil\nAPPEARANCE AND ODOR: Clear slightly amber liquid without dye\nSECTION IV - FIRE AND EXPLOSION HAZARD DATA\nFLASH POINT (P-M, cc): >199°F Seta\nFLAMMABLE LIMITS\nNA\nLEL: NA\nUEL: NA\nEXTINGUISHING MEDIA: Water fog, CO2, dry chemicals.\nSPECIAL FIRE FIGHTING PROCEDURES:\nWear protective equipment including\nself-contained breathing apparatus for large fires. Cool surroundings.\nUNUSUAL FIRE AND EXPLOSION PROCEDURES:\nNone."
}